
  ___ ___ ___ _ _ _  
 |   |   |_  | | | | 
 | | | | | . | | | | 
 |__ |  _|___|_____|  22.1.0
 |___|_|             

User:   hud@hud-PS
Date:   Sun Mar  6 15:54:07 2022
Arch:   x86_64
Pid:    32461
Python: 3.10.0
gpaw:   /home/hud/.virtualenvs/gpaw/lib/python3.10/site-packages/gpaw
_gpaw:  /home/hud/.virtualenvs/gpaw/lib/python3.10/site-packages/
        _gpaw.cpython-310-x86_64-linux-gnu.so
ase:    /home/hud/.virtualenvs/gpaw/lib/python3.10/site-packages/ase (version 3.22.1)
numpy:  /home/hud/.virtualenvs/gpaw/lib/python3.10/site-packages/numpy (version 1.22.2)
scipy:  /home/hud/.virtualenvs/gpaw/lib/python3.10/site-packages/scipy (version 1.8.0)
libxc:  4.3.4
units:  Angstrom and eV
cores: 1
OpenMP: False
OMP_NUM_THREADS: 1

Input parameters:
  kpts: [12 12  1]
  mode: {ecut: 400.0,
         name: pw}
  xc: RPBE

System changes: positions, numbers, cell, pbc, initial_charges, initial_magmoms 

Initialize ...

C-setup:
  name: Carbon
  id: 5e1162da8ccece2d28d8b78a977ec463
  Z: 6.0
  valence: 4
  core: 2
  charge: 0.0
  file: /home/hud/projects/raman/gpaw-setups-0.9.20000/C.RPBE.gz
  compensation charges: gauss, rc=0.20, lmax=2
  cutoffs: 1.14(filt), 1.14(core),
  valence states:
                energy  radius
    2s(2.00)   -13.815   0.635
    2p(2.00)    -5.254   0.635
    *s          13.396   0.635
    *p          21.957   0.635
    *d           0.000   0.635

  Using partial waves for C as LCAO basis

O-setup:
  name: Oxygen
  id: 08071ca1eed670e7821b24b7eb4d558c
  Z: 8.0
  valence: 6
  core: 2
  charge: 0.0
  file: /home/hud/projects/raman/gpaw-setups-0.9.20000/O.RPBE.gz
  compensation charges: gauss, rc=0.21, lmax=2
  cutoffs: 1.17(filt), 0.83(core),
  valence states:
                energy  radius
    2s(2.00)   -24.041   0.688
    2p(4.00)    -8.984   0.598
    *s           3.170   0.688
    *p          18.228   0.598
    *d           0.000   0.619

  Using partial waves for O as LCAO basis

Reference energy: -3072.330161

Spin-paired calculation

Convergence criteria:
 Maximum [total energy] change in last 3 cyles: 0.0005 eV / electron
 Maximum integral of absolute [dens]ity change: 0.0001 electrons / valence electron
 Maximum integral of absolute [eigenst]ate change: 4e-08 eV^2 / valence electron
 Maximum number of scf [iter]ations: 333
 (Square brackets indicate name in SCF output, whereas a 'c' in
 the SCF output indicates the quantity has converged.)

Symmetries present (total): 12

  ( 1  0  0)  ( 1  0  0)  ( 1 -1  0)  ( 1 -1  0)  ( 0  1  0)  ( 0  1  0)
  ( 1 -1  0)  ( 0  1  0)  ( 1  0  0)  ( 0 -1  0)  ( 1  0  0)  (-1  1  0)
  ( 0  0  1)  ( 0  0  1)  ( 0  0  1)  ( 0  0  1)  ( 0  0  1)  ( 0  0  1)

  ( 0 -1  0)  ( 0 -1  0)  (-1  1  0)  (-1  1  0)  (-1  0  0)  (-1  0  0)
  ( 1 -1  0)  (-1  0  0)  ( 0  1  0)  (-1  0  0)  ( 0 -1  0)  (-1  1  0)
  ( 0  0  1)  ( 0  0  1)  ( 0  0  1)  ( 0  0  1)  ( 0  0  1)  ( 0  0  1)
Note: your k-points are not as symmetric as your crystal!

144 k-points: 12 x 12 x 1 Monkhorst-Pack grid
42 k-points in the irreducible part of the Brillouin zone
       k-points in crystal coordinates                weights
   0:     0.04166667   -0.04166667    0.00000000          2/144
   1:     0.04166667    0.04166667    0.00000000          2/144
   2:     0.12500000   -0.12500000    0.00000000          2/144
   3:     0.12500000   -0.04166667    0.00000000          4/144
   4:     0.12500000    0.04166667    0.00000000          4/144
   5:     0.12500000    0.12500000    0.00000000          2/144
   6:     0.20833333   -0.20833333    0.00000000          2/144
   7:     0.20833333   -0.12500000    0.00000000          4/144
   8:     0.20833333   -0.04166667    0.00000000          4/144
   9:     0.20833333    0.04166667    0.00000000          4/144
          ...
  41:     0.45833333    0.45833333    0.00000000          2/144

Wave functions: Plane wave expansion
  Cutoff energy: 400.000 eV
  Number of coefficients (min, max): 1870, 1927
  Pulay-stress correction: 0.000000 eV/Ang^3 (de/decut=0.000000)
  Using FFTW library
  ScaLapack parameters: grid=1x1, blocksize=None
  Wavefunction extrapolation:
    Improved wavefunction reuse through dual PAW basis 

Occupation numbers: Fermi-Dirac: width=0.1000 eV
 

Eigensolver
   Davidson(niter=2) 

Densities:
  Coarse grid: 14*14*75 grid
  Fine grid: 28*28*150 grid
  Total Charge: 0.000000 

Density mixing:
  Method: separate
  Backend: pulay
  Linear mixing parameter: 0.05
  Mixing with 5 old densities
  Damping of long wave oscillations: 50 

Hamiltonian:
  XC and Coulomb potentials evaluated on a 28*28*150 grid
  Using the RPBE Exchange-Correlation functional
  External potential:
    NoExternalPotential
 

XC parameters: RPBE with 2 nearest neighbor stencil

Memory estimate:
  Process memory now: 215.21 MiB
  Calculator: 32.26 MiB
    Density: 6.55 MiB
      Arrays: 2.92 MiB
      Localized functions: 2.51 MiB
      Mixer: 1.12 MiB
    Hamiltonian: 1.97 MiB
      Arrays: 1.91 MiB
      XC: 0.00 MiB
      Poisson: 0.00 MiB
      vbar: 0.06 MiB
    Wavefunctions: 23.74 MiB
      Arrays psit_nG: 9.88 MiB
      Eigensolver: 0.39 MiB
      Projections: 0.13 MiB
      Projectors: 11.54 MiB
      PW-descriptor: 1.80 MiB

Total number of cores used: 1

Number of atoms: 2
Number of atomic orbitals: 8
Number of bands in calculation: 8
Number of valence electrons: 10
Bands to converge: occupied

... initialized

Initializing position-dependent things.

Density initialized from atomic densities
Creating initial wave functions:
  8 bands from LCAO basis set

                
                
                
       O        
                
       C        
                
                
                

Positions:
   0 C      0.000000    0.000000   10.526426    ( 0.0000,  0.0000,  0.0000)
   1 O      0.000000    0.000000   11.676426    ( 0.0000,  0.0000,  0.0000)

Unit cell:
           periodic     x           y           z      points  spacing
  1. axis:    yes    2.771859    0.000000    0.000000    14     0.1715
  2. axis:    yes    1.385929    2.400500    0.000000    14     0.1715
  3. axis:    no     0.000000    0.000000   15.676426    75     0.2090

  Lengths:   2.771859   2.771859  15.676426
  Angles:   90.000000  90.000000  60.000000

Effective grid spacing dv^(1/3) = 0.1922

     iter     time        total  log10-change:
                         energy  eigst   dens
iter:   1 15:54:09   -12.654765
iter:   2 15:54:10   -12.595097  -1.47  -0.92
iter:   3 15:54:11   -12.297029  -1.70  -0.95
iter:   4 15:54:12   -12.224567  -2.25  -1.20
iter:   5 15:54:13   -12.189383  -1.68  -1.37
iter:   6 15:54:14   -12.176452  -3.22  -1.75
iter:   7 15:54:15   -12.167118  -2.83  -1.90
iter:   8 15:54:17   -12.166946  -4.29  -2.52
iter:   9 15:54:18   -12.166921c -4.22  -2.62
iter:  10 15:54:19   -12.166809c -4.86  -2.82
iter:  11 15:54:20   -12.166822c -5.31  -3.45
iter:  12 15:54:21   -12.166811c -5.54  -3.30
iter:  13 15:54:22   -12.166809c -6.60  -3.61
iter:  14 15:54:23   -12.166809c -7.17  -3.80
iter:  15 15:54:24   -12.166809c -7.31  -3.84
iter:  16 15:54:25   -12.166809c -7.19  -3.89
iter:  17 15:54:26   -12.166809c -8.77c -3.91
iter:  18 15:54:27   -12.166808c -7.02  -3.94
iter:  19 15:54:28   -12.166808c -8.54c -4.36c

Converged after 19 iterations.

Dipole moment: (0.000000, -0.000000, 0.029236) |e|*Ang

Energy contributions relative to reference atoms: (reference = -3072.330161)

Kinetic:        +10.332140
Potential:      -11.195392
External:        +0.000000
XC:             -11.213964
Entropy (-ST):   -0.000000
Local:           -0.089592
--------------------------
Free energy:    -12.166808
Extrapolated:   -12.166808

Showing only first 2 kpts
 Kpt  Band  Eigenvalues  Occupancy
  0     3     -8.90893    2.00000
  0     4     -8.76359    2.00000
  0     5      1.33817    0.00000
  0     6      1.52379    0.00000

  1     3     -8.88294    2.00000
  1     4     -8.84108    2.00000
  1     5      1.27674    0.00000
  1     6      1.59121    0.00000


Fermi level: -4.76311

Gap: 3.851 eV
Transition (v -> c):
  (s=0, k=21, n=4, [0.38, -0.29, 0.00]) -> (s=0, k=35, n=5, [0.46, -0.04, 0.00])
Writing to CO.gpw (mode='all')

Timing:                              incl.     excl.
-----------------------------------------------------------
Hamiltonian:                         0.173     0.001   0.0% |
 Atomic:                             0.105     0.001   0.0% |
  XC Correction:                     0.103     0.103   0.5% |
 Calculate atomic Hamiltonians:      0.006     0.006   0.0% |
 Communicate:                        0.000     0.000   0.0% |
 Initialize Hamiltonian:             0.000     0.000   0.0% |
 Poisson:                            0.000     0.000   0.0% |
 XC 3D grid:                         0.062     0.062   0.3% |
LCAO initialization:                 0.639     0.131   0.6% |
 LCAO eigensolver:                   0.073     0.003   0.0% |
  Calculate projections:             0.002     0.002   0.0% |
  DenseAtomicCorrection:             0.008     0.008   0.0% |
  Distribute overlap matrix:         0.001     0.001   0.0% |
  Orbital Layouts:                   0.010     0.010   0.0% |
  Potential matrix:                  0.035     0.035   0.2% |
  Sum over cells:                    0.015     0.015   0.1% |
 LCAO to grid:                       0.288     0.288   1.4% ||
 Set positions (LCAO WFS):           0.147     0.020   0.1% |
  Basic WFS set positions:           0.003     0.003   0.0% |
  Basis functions set positions:     0.000     0.000   0.0% |
  P tci:                             0.050     0.050   0.2% |
  ST tci:                            0.064     0.064   0.3% |
  mktci:                             0.010     0.010   0.0% |
PWDescriptor:                        0.048     0.048   0.2% |
SCF-cycle:                          19.535     0.109   0.5% |
 Davidson:                          14.706     2.737  12.8% |----|
  Apply H:                           2.387     2.298  10.8% |---|
   HMM T:                            0.089     0.089   0.4% |
  Subspace diag:                     2.970     0.054   0.3% |
   calc_h_matrix:                    2.627     0.227   1.1% |
    Apply H:                         2.400     2.303  10.8% |---|
     HMM T:                          0.096     0.096   0.5% |
   diagonalize:                      0.106     0.106   0.5% |
   rotate_psi:                       0.184     0.184   0.9% |
  calc. matrices:                    6.034     1.306   6.1% |-|
   Apply H:                          4.728     4.548  21.3% |--------|
    HMM T:                           0.179     0.179   0.8% |
  diagonalize:                       0.271     0.271   1.3% ||
  rotate_psi:                        0.306     0.306   1.4% ||
 Density:                            1.394     0.000   0.0% |
  Atomic density matrices:           0.033     0.033   0.2% |
  Mix:                               0.219     0.219   1.0% |
  Multipole moments:                 0.002     0.002   0.0% |
  Pseudo density:                    1.140     0.953   4.5% |-|
   Symmetrize density:               0.186     0.186   0.9% |
 Hamiltonian:                        3.290     0.015   0.1% |
  Atomic:                            1.982     0.020   0.1% |
   XC Correction:                    1.962     1.962   9.2% |---|
  Calculate atomic Hamiltonians:     0.081     0.081   0.4% |
  Communicate:                       0.000     0.000   0.0% |
  Poisson:                           0.011     0.011   0.1% |
  XC 3D grid:                        1.201     1.201   5.6% |-|
 Orthonormalize:                     0.035     0.003   0.0% |
  calc_s_matrix:                     0.007     0.007   0.0% |
  inverse-cholesky:                  0.002     0.002   0.0% |
  projections:                       0.019     0.019   0.1% |
  rotate_psi_s:                      0.004     0.004   0.0% |
Set symmetry:                        0.041     0.041   0.2% |
Other:                               0.871     0.871   4.1% |-|
-----------------------------------------------------------
Total:                                        21.307 100.0%

Memory usage: 240.94 MiB
Date: Sun Mar  6 15:54:28 2022
