
  ___ ___ ___ _ _ _  
 |   |   |_  | | | | 
 | | | | | . | | | | 
 |__ |  _|___|_____|  22.1.0
 |___|_|             

User:   hud@hud-PS
Date:   Sun Mar  6 15:41:57 2022
Arch:   x86_64
Pid:    30765
Python: 3.10.0
gpaw:   /home/hud/.virtualenvs/gpaw/lib/python3.10/site-packages/gpaw
_gpaw:  /home/hud/.virtualenvs/gpaw/lib/python3.10/site-packages/
        _gpaw.cpython-310-x86_64-linux-gnu.so
ase:    /home/hud/.virtualenvs/gpaw/lib/python3.10/site-packages/ase (version 3.22.1)
numpy:  /home/hud/.virtualenvs/gpaw/lib/python3.10/site-packages/numpy (version 1.22.2)
scipy:  /home/hud/.virtualenvs/gpaw/lib/python3.10/site-packages/scipy (version 1.8.0)
libxc:  4.3.4
units:  Angstrom and eV
cores: 1
OpenMP: False
OMP_NUM_THREADS: 1

Input parameters:
  kpts: [8 8 8]
  mode: {ecut: 200.0,
         name: pw}
  occupations: {fixmagmom: False,
                name: fermi-dirac,
                width: 0.01}
  random: True
  xc: PBE

System changes: positions, numbers, cell, pbc, initial_charges, initial_magmoms 

Initialize ...

Si-setup:
  name: Silicon
  id: ee77bee481871cc2cb65ac61239ccafa
  Z: 14.0
  valence: 4
  core: 10
  charge: 0.0
  file: /home/hud/projects/raman/gpaw-setups-0.9.20000/Si.PBE.gz
  compensation charges: gauss, rc=0.33, lmax=2
  cutoffs: 1.86(filt), 2.06(core),
  valence states:
                energy  radius
    3s(2.00)   -10.812   1.058
    3p(2.00)    -4.081   1.058
    *s          16.399   1.058
    *p          23.130   1.058
    *d           0.000   1.058

  Using partial waves for Si as LCAO basis

Reference energy: -15772.688500

Spin-paired calculation

Convergence criteria:
 Maximum [total energy] change in last 3 cyles: 0.0005 eV / electron
 Maximum integral of absolute [dens]ity change: 0.0001 electrons / valence electron
 Maximum integral of absolute [eigenst]ate change: 4e-08 eV^2 / valence electron
 Maximum number of scf [iter]ations: 333
 (Square brackets indicate name in SCF output, whereas a 'c' in
 the SCF output indicates the quantity has converged.)

Symmetries present (total): 24

  ( 1  0  0)  ( 1  0  0)  ( 1  0 -1)  ( 1  0 -1)  ( 1 -1  0)  ( 1 -1  0)
  ( 0  1  0)  ( 0  0  1)  ( 0  1 -1)  ( 0  0 -1)  ( 0 -1  1)  ( 0 -1  0)
  ( 0  0  1)  ( 0  1  0)  ( 0  0 -1)  ( 0  1 -1)  ( 0 -1  0)  ( 0 -1  1)

  ( 0  1  0)  ( 0  1  0)  ( 0  1 -1)  ( 0  1 -1)  ( 0  0  1)  ( 0  0  1)
  ( 1  0  0)  ( 0  0  1)  ( 1  0 -1)  ( 0  0 -1)  ( 1  0  0)  ( 0  1  0)
  ( 0  0  1)  ( 1  0  0)  ( 0  0 -1)  ( 1  0 -1)  ( 0  1  0)  ( 1  0  0)

  ( 0  0 -1)  ( 0  0 -1)  ( 0 -1  1)  ( 0 -1  1)  ( 0 -1  0)  ( 0 -1  0)
  ( 1  0 -1)  ( 0  1 -1)  ( 1 -1  0)  ( 0 -1  0)  ( 1 -1  0)  ( 0 -1  1)
  ( 0  1 -1)  ( 1  0 -1)  ( 0 -1  0)  ( 1 -1  0)  ( 0 -1  1)  ( 1 -1  0)

  (-1  1  0)  (-1  1  0)  (-1  0  1)  (-1  0  1)  (-1  0  0)  (-1  0  0)
  (-1  0  1)  (-1  0  0)  (-1  1  0)  (-1  0  0)  (-1  1  0)  (-1  0  1)
  (-1  0  0)  (-1  0  1)  (-1  0  0)  (-1  1  0)  (-1  0  1)  (-1  1  0)
Note: your k-points are not as symmetric as your crystal!

512 k-points: 8 x 8 x 8 Monkhorst-Pack grid
60 k-points in the irreducible part of the Brillouin zone
       k-points in crystal coordinates                weights
   0:     0.06250000    0.06250000   -0.06250000          6/512
   1:     0.06250000    0.06250000    0.06250000          2/512
   2:     0.18750000   -0.06250000   -0.06250000          6/512
   3:     0.18750000    0.06250000   -0.18750000         12/512
   4:     0.18750000    0.06250000   -0.06250000         12/512
   5:     0.18750000    0.06250000    0.06250000          6/512
   6:     0.18750000    0.18750000   -0.18750000          6/512
   7:     0.18750000    0.18750000   -0.06250000          6/512
   8:     0.18750000    0.18750000    0.06250000          6/512
   9:     0.18750000    0.18750000    0.18750000          2/512
          ...
  59:     0.43750000    0.43750000    0.43750000          2/512

Wave functions: Plane wave expansion
  Cutoff energy: 200.000 eV
  Number of coefficients (min, max): 251, 271
  Pulay-stress correction: 0.000000 eV/Ang^3 (de/decut=0.000000)
  Using FFTW library
  ScaLapack parameters: grid=1x1, blocksize=None
  Wavefunction extrapolation:
    Improved wavefunction reuse through dual PAW basis 

Occupation numbers: Fermi-Dirac: width=0.0100 eV
 

Eigensolver
   Davidson(niter=2) 

Densities:
  Coarse grid: 14*14*14 grid
  Fine grid: 28*28*28 grid
  Total Charge: 0.000000 

Density mixing:
  Method: separate
  Backend: pulay
  Linear mixing parameter: 0.05
  Mixing with 5 old densities
  Damping of long wave oscillations: 50 

Hamiltonian:
  XC and Coulomb potentials evaluated on a 28*28*28 grid
  Using the PBE Exchange-Correlation functional
  External potential:
    NoExternalPotential
 

XC parameters: PBE with 2 nearest neighbor stencil

Memory estimate:
  Process memory now: 83.23 MiB
  Calculator: 5.63 MiB
    Density: 1.03 MiB
      Arrays: 0.54 MiB
      Localized functions: 0.27 MiB
      Mixer: 0.21 MiB
    Hamiltonian: 0.36 MiB
      Arrays: 0.36 MiB
      XC: 0.00 MiB
      Poisson: 0.00 MiB
      vbar: 0.01 MiB
    Wavefunctions: 4.24 MiB
      Arrays psit_nG: 1.98 MiB
      Eigensolver: 0.06 MiB
      Projections: 0.19 MiB
      Projectors: 1.65 MiB
      PW-descriptor: 0.35 MiB

Total number of cores used: 1

Number of atoms: 2
Number of atomic orbitals: 8
Number of bands in calculation: 8
Number of valence electrons: 8
Bands to converge: occupied

... initialized

Initializing position-dependent things.

Density initialized from atomic densities
Creating initial wave functions:
  8 bands from LCAO basis set

                    
                    
                    
                    
           Si       
                    
       Si           
                    
                    
                    
                    

Positions:
   0 Si     0.000000    0.000000    0.000000    ( 0.0000,  0.0000,  0.0000)
   1 Si     1.357500    1.357500    1.357500    ( 0.0000,  0.0000,  0.0000)

Unit cell:
           periodic     x           y           z      points  spacing
  1. axis:    yes    0.000000    2.715000    2.715000    14     0.2239
  2. axis:    yes    2.715000    0.000000    2.715000    14     0.2239
  3. axis:    yes    2.715000    2.715000    0.000000    14     0.2239

  Lengths:   3.839590   3.839590   3.839590
  Angles:   60.000000  60.000000  60.000000

Effective grid spacing dv^(1/3) = 0.2443

     iter     time        total  log10-change:
                         energy  eigst   dens
iter:   1 15:41:59   -10.866142
iter:   2 15:41:59   -10.866963  -1.97  -0.80
iter:   3 15:42:00   -11.215354  -1.07  -0.81
iter:   4 15:42:00   -10.828476  -2.03  -0.61
iter:   5 15:42:01   -10.806426  -3.00  -1.21
iter:   6 15:42:01   -10.781924  -2.69  -1.36
iter:   7 15:42:02   -10.781808  -4.32  -2.48
iter:   8 15:42:02   -10.781808c -5.40  -2.93
iter:   9 15:42:03   -10.781948c -5.24  -2.93
iter:  10 15:42:03   -10.781855c -5.94  -2.48
iter:  11 15:42:04   -10.781806c -5.89  -2.70
iter:  12 15:42:04   -10.781799c -6.00  -3.02
iter:  13 15:42:05   -10.781799c -7.38  -4.60c
iter:  14 15:42:05   -10.781799c -8.20c -4.56c

Converged after 14 iterations.

Dipole moment: (-2.923916, -2.923916, -2.923916) |e|*Ang

Energy contributions relative to reference atoms: (reference = -15772.688500)

Kinetic:        +15.687448
Potential:      -13.753344
External:        +0.000000
XC:             -12.665863
Entropy (-ST):   -0.000000
Local:           -0.050040
--------------------------
Free energy:    -10.781799
Extrapolated:   -10.781799

Showing only first 2 kpts
 Kpt  Band  Eigenvalues  Occupancy
  0     2      4.79614    2.00000
  0     3      4.96446    2.00000
  0     4      7.71350    0.00000
  0     5      8.33100    0.00000

  1     2      5.23213    2.00000
  1     3      5.23213    2.00000
  1     4      7.94126    0.00000
  1     5      8.00074    0.00000


Fermi level: 5.84558

Gap: 0.814 eV
Transition (v -> c):
  (s=0, k=1, n=3, [0.06, 0.06, 0.06]) -> (s=0, k=55, n=4, [0.44, 0.44, -0.06])
Writing to Si_gs.gpw (mode='')

Timing:                              incl.     excl.
-----------------------------------------------------------
Hamiltonian:                         0.153     0.000   0.0% |
 Atomic:                             0.134     0.001   0.0% |
  XC Correction:                     0.133     0.133   0.1% |
 Calculate atomic Hamiltonians:      0.001     0.001   0.0% |
 Communicate:                        0.000     0.000   0.0% |
 Initialize Hamiltonian:             0.000     0.000   0.0% |
 Poisson:                            0.000     0.000   0.0% |
 XC 3D grid:                         0.018     0.018   0.0% |
LCAO initialization:                 0.589     0.029   0.0% |
 LCAO eigensolver:                   0.088     0.003   0.0% |
  Calculate projections:             0.002     0.002   0.0% |
  DenseAtomicCorrection:             0.008     0.008   0.0% |
  Distribute overlap matrix:         0.001     0.001   0.0% |
  Orbital Layouts:                   0.011     0.011   0.0% |
  Potential matrix:                  0.023     0.023   0.0% |
  Sum over cells:                    0.040     0.040   0.0% |
 LCAO to grid:                       0.165     0.165   0.2% |
 Set positions (LCAO WFS):           0.307     0.032   0.0% |
  Basic WFS set positions:           0.003     0.003   0.0% |
  Basis functions set positions:     0.000     0.000   0.0% |
  P tci:                             0.092     0.092   0.1% |
  ST tci:                            0.155     0.155   0.2% |
  mktci:                             0.025     0.025   0.0% |
PWDescriptor:                        0.039     0.039   0.0% |
SCF-cycle:                           6.259     0.139   0.1% |
 Davidson:                           4.334     1.280   1.3% ||
  Apply H:                           0.392     0.340   0.3% |
   HMM T:                            0.053     0.053   0.1% |
  Subspace diag:                     0.735     0.050   0.1% |
   calc_h_matrix:                    0.529     0.130   0.1% |
    Apply H:                         0.399     0.344   0.3% |
     HMM T:                          0.054     0.054   0.1% |
   diagonalize:                      0.097     0.097   0.1% |
   rotate_psi:                       0.060     0.060   0.1% |
  calc. matrices:                    1.574     0.785   0.8% |
   Apply H:                          0.788     0.684   0.7% |
    HMM T:                           0.104     0.104   0.1% |
  diagonalize:                       0.268     0.268   0.3% |
  rotate_psi:                        0.085     0.085   0.1% |
 Density:                            0.213     0.000   0.0% |
  Atomic density matrices:           0.028     0.028   0.0% |
  Mix:                               0.027     0.027   0.0% |
  Multipole moments:                 0.001     0.001   0.0% |
  Pseudo density:                    0.157     0.114   0.1% |
   Symmetrize density:               0.043     0.043   0.0% |
 Hamiltonian:                        1.555     0.005   0.0% |
  Atomic:                            1.377     0.014   0.0% |
   XC Correction:                    1.364     1.364   1.4% ||
  Calculate atomic Hamiltonians:     0.013     0.013   0.0% |
  Communicate:                       0.000     0.000   0.0% |
  Poisson:                           0.002     0.002   0.0% |
  XC 3D grid:                        0.158     0.158   0.2% |
 Orthonormalize:                     0.018     0.003   0.0% |
  calc_s_matrix:                     0.005     0.005   0.0% |
  inverse-cholesky:                  0.002     0.002   0.0% |
  projections:                       0.006     0.006   0.0% |
  rotate_psi_s:                      0.001     0.001   0.0% |
Set symmetry:                        0.113     0.113   0.1% |
Other:                              92.378    92.378  92.8% |------------------------------------|
-----------------------------------------------------------
Total:                                        99.530 100.0%

Memory usage: 141.41 MiB
Date: Sun Mar  6 15:43:37 2022
