
  ___ ___ ___ _ _ _  
 |   |   |_  | | | | 
 | | | | | . | | | | 
 |__ |  _|___|_____|  22.1.0
 |___|_|             

User:   hud@hud-PS
Date:   Sun Mar  6 15:49:07 2022
Arch:   x86_64
Pid:    32461
Python: 3.10.0
gpaw:   /home/hud/.virtualenvs/gpaw/lib/python3.10/site-packages/gpaw
_gpaw:  /home/hud/.virtualenvs/gpaw/lib/python3.10/site-packages/
        _gpaw.cpython-310-x86_64-linux-gnu.so
ase:    /home/hud/.virtualenvs/gpaw/lib/python3.10/site-packages/ase (version 3.22.1)
numpy:  /home/hud/.virtualenvs/gpaw/lib/python3.10/site-packages/numpy (version 1.22.2)
scipy:  /home/hud/.virtualenvs/gpaw/lib/python3.10/site-packages/scipy (version 1.8.0)
libxc:  4.3.4
units:  Angstrom and eV
cores: 1
OpenMP: False
OMP_NUM_THREADS: 1

Input parameters:
  convergence: {bands: -10}
  kpts: [12 12  1]
  mode: {ecut: 400.0,
         name: pw}
  xc: RPBE

System changes: positions, numbers, cell, pbc, initial_charges, initial_magmoms 

Initialize ...

Pt-setup:
  name: Platinum
  id: f04f522592575c47ad794f6b4a415b4b
  Z: 78.0
  valence: 16
  core: 62
  charge: 0.0
  file: /home/hud/projects/raman/gpaw-setups-0.9.20000/Pt.RPBE.gz
  compensation charges: gauss, rc=0.41, lmax=2
  cutoffs: 2.26(filt), 2.26(core),
  valence states:
                energy  radius
    6s(1.00)    -5.516   1.307
    5p(6.00)   -55.971   1.371
    6p(0.00)    -0.856   1.371
    5d(9.00)    -6.087   1.307
    *s          21.695   1.307
    *d          21.125   1.307

  Using partial waves for Pt as LCAO basis

C-setup:
  name: Carbon
  id: 5e1162da8ccece2d28d8b78a977ec463
  Z: 6.0
  valence: 4
  core: 2
  charge: 0.0
  file: /home/hud/projects/raman/gpaw-setups-0.9.20000/C.RPBE.gz
  compensation charges: gauss, rc=0.20, lmax=2
  cutoffs: 1.14(filt), 1.14(core),
  valence states:
                energy  radius
    2s(2.00)   -13.815   0.635
    2p(2.00)    -5.254   0.635
    *s          13.396   0.635
    *p          21.957   0.635
    *d           0.000   0.635

  Using partial waves for C as LCAO basis

O-setup:
  name: Oxygen
  id: 08071ca1eed670e7821b24b7eb4d558c
  Z: 8.0
  valence: 6
  core: 2
  charge: 0.0
  file: /home/hud/projects/raman/gpaw-setups-0.9.20000/O.RPBE.gz
  compensation charges: gauss, rc=0.21, lmax=2
  cutoffs: 1.17(filt), 0.83(core),
  valence states:
                energy  radius
    2s(2.00)   -24.041   0.688
    2p(4.00)    -8.984   0.598
    *s           3.170   0.688
    *p          18.228   0.598
    *d           0.000   0.619

  Using partial waves for O as LCAO basis

Reference energy: -1504241.524866

Spin-paired calculation

Convergence criteria:
 Maximum [total energy] change in last 3 cyles: 0.0005 eV / electron
 Maximum integral of absolute [dens]ity change: 0.0001 electrons / valence electron
 Maximum integral of absolute [eigenst]ate change: 4e-08 eV^2 / valence electron
 Maximum number of scf [iter]ations: 333
 (Square brackets indicate name in SCF output, whereas a 'c' in
 the SCF output indicates the quantity has converged.)

Symmetries present (total): 6

  ( 1  0  0)  ( 1 -1  0)  ( 0  1  0)  ( 0 -1  0)  (-1  1  0)  (-1  0  0)
  ( 0  1  0)  ( 0 -1  0)  ( 1  0  0)  ( 1 -1  0)  (-1  0  0)  (-1  1  0)
  ( 0  0  1)  ( 0  0  1)  ( 0  0  1)  ( 0  0  1)  ( 0  0  1)  ( 0  0  1)
Note: your k-points are not as symmetric as your crystal!

144 k-points: 12 x 12 x 1 Monkhorst-Pack grid
42 k-points in the irreducible part of the Brillouin zone
       k-points in crystal coordinates                weights
   0:     0.04166667   -0.04166667    0.00000000          2/144
   1:     0.04166667    0.04166667    0.00000000          2/144
   2:     0.12500000   -0.12500000    0.00000000          2/144
   3:     0.12500000   -0.04166667    0.00000000          4/144
   4:     0.12500000    0.04166667    0.00000000          4/144
   5:     0.12500000    0.12500000    0.00000000          2/144
   6:     0.20833333   -0.20833333    0.00000000          2/144
   7:     0.20833333   -0.12500000    0.00000000          4/144
   8:     0.20833333   -0.04166667    0.00000000          4/144
   9:     0.20833333    0.04166667    0.00000000          4/144
          ...
  41:     0.45833333    0.45833333    0.00000000          2/144

Wave functions: Plane wave expansion
  Cutoff energy: 400.000 eV
  Number of coefficients (min, max): 1870, 1927
  Pulay-stress correction: 0.000000 eV/Ang^3 (de/decut=0.000000)
  Using FFTW library
  ScaLapack parameters: grid=1x1, blocksize=None
  Wavefunction extrapolation:
    Improved wavefunction reuse through dual PAW basis 

Occupation numbers: Fermi-Dirac: width=0.1000 eV
 

Eigensolver
   Davidson(niter=2) 

Densities:
  Coarse grid: 14*14*75 grid
  Fine grid: 28*28*150 grid
  Total Charge: 0.000000 

Density mixing:
  Method: separate
  Backend: pulay
  Linear mixing parameter: 0.05
  Mixing with 5 old densities
  Damping of long wave oscillations: 50 

Hamiltonian:
  XC and Coulomb potentials evaluated on a 28*28*150 grid
  Using the RPBE Exchange-Correlation functional
  External potential:
    NoExternalPotential
 

XC parameters: RPBE with 2 nearest neighbor stencil

Memory estimate:
  Process memory now: 93.22 MiB
  Calculator: 77.73 MiB
    Density: 7.06 MiB
      Arrays: 2.92 MiB
      Localized functions: 3.03 MiB
      Mixer: 1.12 MiB
    Hamiltonian: 1.99 MiB
      Arrays: 1.91 MiB
      XC: 0.00 MiB
      Poisson: 0.00 MiB
      vbar: 0.08 MiB
    Wavefunctions: 68.67 MiB
      Arrays psit_nG: 48.16 MiB
      Eigensolver: 1.53 MiB
      Projections: 2.00 MiB
      Projectors: 15.19 MiB
      PW-descriptor: 1.80 MiB

Total number of cores used: 1

Number of atoms: 5
Number of atomic orbitals: 44
Number of bands in calculation: 39
Number of valence electrons: 58
Bands to converge: 29

... initialized

Initializing position-dependent things.

Density initialized from atomic densities
Creating initial wave functions:
  39 bands from LCAO basis set

                    
                    
                    
                    
       O            
                    
       C            
                    
       Pt           
                    
        Pt          
                    
                    
           Pt       
                    
                    
                    
                    

Positions:
   0 Pt     1.385929    0.800167    4.000000    ( 0.0000,  0.0000,  0.0000)
   1 Pt    -0.000000    1.600333    6.263213    ( 0.0000,  0.0000,  0.0000)
   2 Pt     0.000000    0.000000    8.526426    ( 0.0000,  0.0000,  0.0000)
   3 C      0.000000    0.000000   10.526426    ( 0.0000,  0.0000,  0.0000)
   4 O      0.000000    0.000000   11.676426    ( 0.0000,  0.0000,  0.0000)

Unit cell:
           periodic     x           y           z      points  spacing
  1. axis:    yes    2.771859    0.000000    0.000000    14     0.1715
  2. axis:    yes    1.385929    2.400500    0.000000    14     0.1715
  3. axis:    no     0.000000    0.000000   15.676426    75     0.2090

  Lengths:   2.771859   2.771859  15.676426
  Angles:   90.000000  90.000000  60.000000

Effective grid spacing dv^(1/3) = 0.1922

     iter     time        total  log10-change:
                         energy  eigst   dens
iter:   1 15:49:24   -31.145476  +0.31
iter:   2 15:49:35   -30.511795  -1.17  -1.30
iter:   3 15:49:45   -30.266134  -2.10  -1.34
iter:   4 15:49:57   -29.958674  -2.07  -1.38
iter:   5 15:50:09   -29.385395  -1.78  -1.44
iter:   6 15:50:22   -29.253903  -2.22  -1.76
iter:   7 15:50:34   -29.267859  -2.82  -2.00
iter:   8 15:50:47   -29.241104c -3.77  -2.01
iter:   9 15:50:59   -29.197163  -2.42  -2.08
iter:  10 15:51:12   -29.190866  -3.72  -2.53
iter:  11 15:51:24   -29.192169c -4.16  -2.61
iter:  12 15:51:37   -29.188977c -3.91  -2.66
iter:  13 15:51:49   -29.189106c -4.74  -2.87
iter:  14 15:52:01   -29.189123c -5.28  -2.97
iter:  15 15:52:15   -29.189319c -4.70  -3.03
iter:  16 15:52:27   -29.189081c -5.49  -3.31
iter:  17 15:52:41   -29.189105c -5.65  -3.33
iter:  18 15:52:53   -29.189069c -5.69  -3.47
iter:  19 15:53:06   -29.189225c -6.08  -3.64
iter:  20 15:53:18   -29.189193c -7.05  -3.80
iter:  21 15:53:30   -29.189177c -6.12  -3.86
iter:  22 15:53:42   -29.189184c -6.68  -4.17c
iter:  23 15:53:54   -29.189221c -7.34  -4.37c
iter:  24 15:54:07   -29.189215c -7.50c -4.44c

Converged after 24 iterations.

Dipole moment: (-0.022874, -0.013206, 0.049176) |e|*Ang

Energy contributions relative to reference atoms: (reference = -1504241.524866)

Kinetic:         -5.612714
Potential:       -0.204388
External:        +0.000000
XC:             -21.715725
Entropy (-ST):   -0.144112
Local:           -1.584332
--------------------------
Free energy:    -29.261271
Extrapolated:   -29.189215

Showing only first 2 kpts
 Kpt  Band  Eigenvalues  Occupancy
  0    27      3.01469    2.00000
  0    28      3.13935    1.99999
  0    29      3.53242    1.99947
  0    30      4.12665    1.81681

  1    27      3.08136    1.99999
  1    28      3.10458    1.99999
  1    29      3.74654    1.99550
  1    30      4.12083    1.82625


Fermi level: 4.35607

No gap
Writing to top.gpw (mode='all')

Timing:                              incl.     excl.
-----------------------------------------------------------
Hamiltonian:                         0.530     0.001   0.0% |
 Atomic:                             0.462     0.035   0.0% |
  XC Correction:                     0.427     0.427   0.1% |
 Calculate atomic Hamiltonians:      0.016     0.016   0.0% |
 Communicate:                        0.000     0.000   0.0% |
 Initialize Hamiltonian:             0.000     0.000   0.0% |
 Poisson:                            0.000     0.000   0.0% |
 XC 3D grid:                         0.052     0.052   0.0% |
LCAO initialization:                 4.882     0.221   0.1% |
 LCAO eigensolver:                   0.766     0.005   0.0% |
  Calculate projections:             0.008     0.008   0.0% |
  DenseAtomicCorrection:             0.019     0.019   0.0% |
  Distribute overlap matrix:         0.008     0.008   0.0% |
  Orbital Layouts:                   0.167     0.167   0.1% |
  Potential matrix:                  0.405     0.405   0.1% |
  Sum over cells:                    0.154     0.154   0.0% |
 LCAO to grid:                       3.311     3.311   1.0% |
 Set positions (LCAO WFS):           0.584     0.093   0.0% |
  Basic WFS set positions:           0.001     0.001   0.0% |
  Basis functions set positions:     0.000     0.000   0.0% |
  P tci:                             0.238     0.238   0.1% |
  ST tci:                            0.238     0.238   0.1% |
  mktci:                             0.015     0.015   0.0% |
PWDescriptor:                        0.115     0.115   0.0% |
SCF-cycle:                         292.242     1.070   0.3% |
 Davidson:                         267.866    44.550  13.9% |-----|
  Apply H:                          41.014    39.635  12.3% |----|
   HMM T:                            1.379     1.379   0.4% |
  Subspace diag:                    53.200     0.227   0.1% |
   calc_h_matrix:                   45.727     4.730   1.5% ||
    Apply H:                        40.997    39.601  12.3% |----|
     HMM T:                          1.396     1.396   0.4% |
   diagonalize:                      1.398     1.398   0.4% |
   rotate_psi:                       5.847     5.847   1.8% ||
  calc. matrices:                  103.028    23.559   7.3% |--|
   Apply H:                         79.469    76.757  23.9% |---------|
    HMM T:                           2.712     2.712   0.8% |
  diagonalize:                      14.547    14.547   4.5% |-|
  rotate_psi:                       11.527    11.527   3.6% ||
 Density:                            8.965     0.001   0.0% |
  Atomic density matrices:           0.140     0.140   0.0% |
  Mix:                               0.659     0.659   0.2% |
  Multipole moments:                 0.004     0.004   0.0% |
  Pseudo density:                    8.161     8.026   2.5% ||
   Symmetrize density:               0.135     0.135   0.0% |
 Hamiltonian:                       13.890     0.022   0.0% |
  Atomic:                           11.959     0.123   0.0% |
   XC Correction:                   11.836    11.836   3.7% ||
  Calculate atomic Hamiltonians:     0.290     0.290   0.1% |
  Communicate:                       0.000     0.000   0.0% |
  Poisson:                           0.038     0.038   0.0% |
  XC 3D grid:                        1.580     1.580   0.5% |
 Orthonormalize:                     0.451     0.007   0.0% |
  calc_s_matrix:                     0.087     0.087   0.0% |
  inverse-cholesky:                  0.015     0.015   0.0% |
  projections:                       0.244     0.244   0.1% |
  rotate_psi_s:                      0.099     0.099   0.0% |
Set symmetry:                        0.017     0.017   0.0% |
Other:                              23.278    23.278   7.3% |--|
-----------------------------------------------------------
Total:                                       321.065 100.0%

Memory usage: 240.94 MiB
Date: Sun Mar  6 15:54:28 2022
