
  ___ ___ ___ _ _ _  
 |   |   |_  | | | | 
 | | | | | . | | | | 
 |__ |  _|___|_____|  22.1.0
 |___|_|             

User:   hud@hud-PS
Date:   Sun Mar  6 15:14:58 2022
Arch:   x86_64
Pid:    24391
Python: 3.10.0
gpaw:   /home/hud/.virtualenvs/gpaw/lib/python3.10/site-packages/gpaw
_gpaw:  /home/hud/.virtualenvs/gpaw/lib/python3.10/site-packages/
        _gpaw.cpython-310-x86_64-linux-gnu.so
ase:    /home/hud/.virtualenvs/gpaw/lib/python3.10/site-packages/ase (version 3.22.1)
numpy:  /home/hud/.virtualenvs/gpaw/lib/python3.10/site-packages/numpy (version 1.22.2)
scipy:  /home/hud/.virtualenvs/gpaw/lib/python3.10/site-packages/scipy (version 1.8.0)
libxc:  4.3.4
units:  Angstrom and eV
cores: 1
OpenMP: False
OMP_NUM_THREADS: 1

Input parameters:
  h: 0.2

System changes: positions, numbers, cell, pbc, initial_charges, initial_magmoms 

Initialize ...

O-setup:
  name: Oxygen
  id: 9b9d51c344dea68c822856295a461509
  Z: 8.0
  valence: 6
  core: 2
  charge: 0.0
  file: /home/hud/projects/raman/gpaw-setups-0.9.20000/O.LDA.gz
  compensation charges: gauss, rc=0.21, lmax=2
  cutoffs: 1.17(filt), 0.83(core),
  valence states:
                energy  radius
    2s(2.00)   -23.752   0.688
    2p(4.00)    -9.195   0.598
    *s           3.459   0.688
    *p          18.016   0.598
    *d           0.000   0.619

  Using partial waves for O as LCAO basis

H-setup:
  name: Hydrogen
  id: 4766778ce56282eaa64abeb28b7c1de3
  Z: 1.0
  valence: 1
  core: 0
  charge: 0.0
  file: /home/hud/projects/raman/gpaw-setups-0.9.20000/H.LDA.gz
  compensation charges: gauss, rc=0.15, lmax=2
  cutoffs: 0.85(filt), 0.53(core),
  valence states:
                energy  radius
    1s(1.00)    -6.353   0.476
    *s          20.858   0.476
    *p           0.000   0.476

  Using partial waves for H as LCAO basis

Reference energy: -2052.165985

Spin-paired calculation

Convergence criteria:
 Maximum [total energy] change in last 3 cyles: 0.0005 eV / electron
 Maximum integral of absolute [dens]ity change: 0.0001 electrons / valence electron
 Maximum integral of absolute [eigenst]ate change: 4e-08 eV^2 / valence electron
 Maximum number of scf [iter]ations: 333
 (Square brackets indicate name in SCF output, whereas a 'c' in
 the SCF output indicates the quantity has converged.)

Symmetries present (total): 4

  ( 1  0  0)  ( 1  0  0)  (-1  0  0)  (-1  0  0)
  ( 0  1  0)  ( 0 -1  0)  ( 0  1  0)  ( 0 -1  0)
  ( 0  0  1)  ( 0  0  1)  ( 0  0  1)  ( 0  0  1)

1 k-point (Gamma)
1 k-point in the irreducible part of the Brillouin zone
       k-points in crystal coordinates                weights
   0:     0.00000000    0.00000000    0.00000000          1/1

Wave functions: Uniform real-space grid
  Kinetic energy operator: 6*3+1=19 point O(h^6) finite-difference Laplacian
  ScaLapack parameters: grid=1x1, blocksize=None
  Wavefunction extrapolation:
    Improved wavefunction reuse through dual PAW basis 

Occupation numbers: width=0.000 eV 

Eigensolver
   Davidson(niter=2) 

Densities:
  Coarse grid: 40*40*40 grid
  Fine grid: 80*80*80 grid
  Total Charge: 0.000000 

Density mixing:
  Method: separate
  Backend: pulay
  Linear mixing parameter: 0.25
  Mixing with 3 old densities
  No damping of long wave oscillations 

Hamiltonian:
  XC and Coulomb potentials evaluated on a 80*80*80 grid
  Using the LDA Exchange-Correlation functional
  Interpolation: tri-quintic (5. degree polynomial)
  Poisson solver: FastPoissonSolver using
    Stencil: 6*3+1=19 point O(h^6) finite-difference Laplacian
    FFT axes: []
    FST axes: [0, 1, 2]
 

Memory estimate:
  Process memory now: 123.43 MiB
  Calculator: 32.03 MiB
    Density: 16.16 MiB
      Arrays: 12.19 MiB
      Localized functions: 1.25 MiB
      Mixer: 2.72 MiB
    Hamiltonian: 8.07 MiB
      Arrays: 7.98 MiB
      XC: 0.00 MiB
      Poisson: 0.00 MiB
      vbar: 0.09 MiB
    Wavefunctions: 7.80 MiB
      Arrays psit_nG: 2.72 MiB
      Eigensolver: 4.98 MiB
      Projections: 0.00 MiB
      Projectors: 0.11 MiB

Total number of cores used: 1

Number of atoms: 3
Number of atomic orbitals: 6
Number of bands in calculation: 6
Number of valence electrons: 8
Bands to converge: occupied

... initialized

Initializing position-dependent things.

Density initialized from atomic densities
Creating initial wave functions:
  6 bands from LCAO basis set

      .-------------------.  
     /|                   |  
    / |                   |  
   /  |                   |  
  /   |                   |  
 *    |                   |  
 |    |                   |  
 |    |       O           |  
 |    |      H            |  
 |    |                   |  
 |    .-------------------.  
 |   /                   /   
 |  /                   /    
 | /                   /     
 |/                   /      
 *-------------------*       

Positions:
   0 O      4.000000    4.000000    4.298154    ( 0.0000,  0.0000,  0.0000)
   1 H      4.000000    4.763239    3.701846    ( 0.0000,  0.0000,  0.0000)
   2 H      4.000000    3.236761    3.701846    ( 0.0000,  0.0000,  0.0000)

Unit cell:
           periodic     x           y           z      points  spacing
  1. axis:    no     8.000000    0.000000    0.000000    40     0.2000
  2. axis:    no     0.000000    8.000000    0.000000    40     0.2000
  3. axis:    no     0.000000    0.000000    8.000000    40     0.2000

  Lengths:   8.000000   8.000000   8.000000
  Angles:   90.000000  90.000000  90.000000

Effective grid spacing dv^(1/3) = 0.2000

     iter     time        total  log10-change:
                         energy  eigst   dens
iter:   1 15:14:58   -17.375167
iter:   2 15:14:59   -15.536821  +0.75  -0.69
iter:   3 15:14:59   -15.317635  +0.50  -0.96
iter:   4 15:15:00   -15.272738  -0.70  -1.15
iter:   5 15:15:00   -15.253910  -1.15  -1.67
iter:   6 15:15:01   -15.253581  -1.51  -2.35
iter:   7 15:15:01   -15.253596c -2.77  -2.50
iter:   8 15:15:01   -15.253822c -2.82  -2.58
iter:   9 15:15:02   -15.253626c -2.98  -2.78
iter:  10 15:15:02   -15.253641c -3.83  -2.95
iter:  11 15:15:02   -15.253641c -4.75  -3.67
iter:  12 15:15:03   -15.253641c -5.16  -3.87
iter:  13 15:15:03   -15.253640c -5.69  -4.09c
iter:  14 15:15:04   -15.253641c -6.24  -4.20c
iter:  15 15:15:04   -15.253641c -7.08  -4.40c
iter:  16 15:15:04   -15.253641c -7.33  -4.62c
iter:  17 15:15:05   -15.253641c -7.44c -5.06c

Converged after 17 iterations.

Dipole moment: (-0.000000, -0.000000, -0.395058) |e|*Ang

Energy contributions relative to reference atoms: (reference = -2052.165985)

Kinetic:        +17.991123
Potential:      -20.252273
External:        +0.000000
XC:             -13.642814
Entropy (-ST):   +0.000000
Local:           +0.650324
--------------------------
Free energy:    -15.253641
Extrapolated:   -15.253641

 Band  Eigenvalues  Occupancy
    0    -25.07398    2.00000
    1    -13.13909    2.00000
    2     -9.41445    2.00000
    3     -7.38507    2.00000
    4     -0.60083    0.00000
    5      1.42131    0.00000

Fermi level: -3.99295

Gap: 6.784 eV
Transition (v -> c):
  (s=0, k=0, n=3, [0.00, 0.00, 0.00]) -> (s=0, k=0, n=4, [0.00, 0.00, 0.00])
Timing:                              incl.     excl.
-----------------------------------------------------------
Hamiltonian:                         0.146     0.000   0.0% |
 Atomic:                             0.021     0.001   0.0% |
  XC Correction:                     0.020     0.020   0.3% |
 Calculate atomic Hamiltonians:      0.000     0.000   0.0% |
 Communicate:                        0.000     0.000   0.0% |
 Hartree integrate/restrict:         0.003     0.003   0.0% |
 Initialize Hamiltonian:             0.001     0.001   0.0% |
 Poisson:                            0.054     0.003   0.0% |
  Communicate from 1D:               0.003     0.003   0.0% |
  Communicate from 2D:               0.003     0.003   0.0% |
  Communicate to 1D:                 0.015     0.015   0.2% |
  Communicate to 2D:                 0.004     0.004   0.1% |
  FFT 1D:                            0.006     0.006   0.1% |
  FFT 2D:                            0.019     0.019   0.3% |
 XC 3D grid:                         0.062     0.062   0.9% |
 vbar:                               0.005     0.005   0.1% |
LCAO initialization:                 0.077     0.046   0.6% |
 LCAO eigensolver:                   0.014     0.000   0.0% |
  Calculate projections:             0.000     0.000   0.0% |
  DenseAtomicCorrection:             0.000     0.000   0.0% |
  Distribute overlap matrix:         0.000     0.000   0.0% |
  Orbital Layouts:                   0.008     0.008   0.1% |
  Potential matrix:                  0.005     0.005   0.1% |
 LCAO to grid:                       0.005     0.005   0.1% |
 Set positions (LCAO WFS):           0.011     0.002   0.0% |
  Basic WFS set positions:           0.001     0.001   0.0% |
  Basis functions set positions:     0.000     0.000   0.0% |
  P tci:                             0.005     0.005   0.1% |
  ST tci:                            0.001     0.001   0.0% |
  mktci:                             0.002     0.002   0.0% |
SCF-cycle:                           6.493     0.022   0.3% |
 Davidson:                           2.696     0.973  13.4% |----|
  Apply hamiltonian:                 0.270     0.270   3.7% ||
  Subspace diag:                     0.440     0.002   0.0% |
   calc_h_matrix:                    0.353     0.045   0.6% |
    Apply hamiltonian:               0.308     0.308   4.3% |-|
   diagonalize:                      0.016     0.016   0.2% |
   rotate_psi:                       0.069     0.069   1.0% |
  calc. matrices:                    0.876     0.249   3.4% ||
   Apply hamiltonian:                0.627     0.627   8.7% |--|
  diagonalize:                       0.029     0.029   0.4% |
  rotate_psi:                        0.107     0.107   1.5% ||
 Density:                            0.940     0.001   0.0% |
  Atomic density matrices:           0.017     0.017   0.2% |
  Mix:                               0.492     0.492   6.8% |--|
  Multipole moments:                 0.004     0.004   0.1% |
  Pseudo density:                    0.426     0.022   0.3% |
   Symmetrize density:               0.404     0.404   5.6% |-|
 Hamiltonian:                        2.831     0.002   0.0% |
  Atomic:                            0.362     0.013   0.2% |
   XC Correction:                    0.349     0.349   4.8% |-|
  Calculate atomic Hamiltonians:     0.008     0.008   0.1% |
  Communicate:                       0.000     0.000   0.0% |
  Hartree integrate/restrict:        0.053     0.053   0.7% |
  Poisson:                           1.025     0.037   0.5% |
   Communicate from 1D:              0.051     0.051   0.7% |
   Communicate from 2D:              0.071     0.071   1.0% |
   Communicate to 1D:                0.147     0.147   2.0% ||
   Communicate to 2D:                0.123     0.123   1.7% ||
   FFT 1D:                           0.185     0.185   2.5% ||
   FFT 2D:                           0.412     0.412   5.7% |-|
  XC 3D grid:                        1.308     1.308  18.1% |------|
  vbar:                              0.074     0.074   1.0% |
 Orthonormalize:                     0.004     0.000   0.0% |
  calc_s_matrix:                     0.001     0.001   0.0% |
  inverse-cholesky:                  0.000     0.000   0.0% |
  projections:                       0.000     0.000   0.0% |
  rotate_psi_s:                      0.002     0.002   0.0% |
Set symmetry:                        0.004     0.004   0.1% |
Other:                               0.523     0.523   7.2% |--|
-----------------------------------------------------------
Total:                                         7.242 100.0%

Memory usage: 148.66 MiB
Date: Sun Mar  6 15:15:05 2022
